/*--------------------------------*- C++ -*----------------------------------*\
| =========                 |                                                 |
| \\      /  F ield         | OpenFOAM: The Open Source CFD Toolbox           |
|  \\    /   O peration     | Version:  2.2.0                                 |
|   \\  /    A nd           | Web:      www.OpenFOAM.org                      |
|    \\/     M anipulation  |                                                 |
\*---------------------------------------------------------------------------*/
FoamFile
{
    version     2.0;
    format      ascii;
    class       volScalarField;
    location    "0";
    object      yPlus;
}
// * * * * * * * * * * * * * * * * * * * * * * * * * * * * * * * * * * * * * //

dimensions      [0 0 0 0 0 0 0];

internalField   uniform 0;

boundaryField
{
    wall
    {
        type            calculated;
        value           nonuniform List<scalar> 
18700
(
24.736
23.0933
21.5281
20.3317
19.6928
19.708
20.3598
21.5177
22.9596
24.3656
24.7364
23.0938
21.5287
20.3324
19.6935
19.7086
20.3604
21.5183
22.96
24.3659
24.7368
23.0944
21.5293
20.333
19.6942
19.7093
20.361
21.5188
22.9604
24.3662
24.7372
23.0949
21.5299
20.3337
19.6949
19.71
20.3617
21.5194
22.9609
24.3665
24.7377
23.0954
21.5306
20.3344
19.6956
19.7106
20.3623
21.52
22.9614
24.3669
24.7381
23.096
21.5312
20.335
19.6963
19.7113
20.363
21.5205
22.9618
24.3672
24.7385
23.0965
21.5318
20.3357
19.697
19.712
20.3636
21.5211
22.9623
24.3676
24.7389
23.097
21.5324
20.3364
19.6976
19.7127
20.3642
21.5216
22.9627
24.3679
24.7394
23.0976
21.533
20.337
19.6983
19.7133
20.3648
21.5222
22.9632
24.3682
24.7398
23.0981
21.5336
20.3377
19.699
19.714
20.3654
21.5227
22.9636
24.3686
24.7402
23.0986
21.5342
20.3383
19.6997
19.7147
20.3661
21.5233
22.9641
24.3689
24.7407
23.0992
21.5348
20.339
19.7004
19.7153
20.3667
21.5238
22.9645
24.3692
24.7411
23.0997
21.5355
20.3397
19.701
19.716
20.3673
21.5244
22.965
24.3695
24.7415
23.1002
21.5361
20.3403
19.7017
19.7167
20.368
21.525
22.9655
24.3699
24.7419
23.1008
21.5367
20.341
19.7024
19.7173
20.3686
21.5255
22.9659
24.3702
24.7424
23.1013
21.5373
20.3417
19.7031
19.718
20.3692
21.5261
22.9664
24.3706
24.7428
23.1018
21.5379
20.3423
19.7038
19.7187
20.3699
21.5266
22.9668
24.3709
24.7432
23.1024
21.5385
20.343
19.7045
19.7194
20.3705
21.5272
22.9673
24.3712
24.7436
23.1029
21.5392
20.3437
19.7051
19.72
20.3711
21.5278
22.9677
24.3716
24.7441
23.1034
21.5398
20.3443
19.7058
19.7207
20.3717
21.5283
22.9682
24.3719
20.0947
20.1351
20.2469
20.4157
20.6177
20.8434
21.0791
21.3387
21.6207
21.832
22.0715
22.4598
22.6527
22.9737
23.3566
23.6246
23.8734
24.3245
24.8961
25.7626
20.0948
20.1352
20.2471
20.4158
20.6178
20.8435
21.0792
21.3388
21.6209
21.8321
22.0716
22.46
22.6528
22.9739
23.3568
23.6248
23.8736
24.3248
24.8963
25.763
20.0949
20.1353
20.2472
20.4159
20.6179
20.8437
21.0793
21.339
21.621
21.8323
22.0718
22.4602
22.653
22.9741
23.357
23.625
23.8738
24.325
24.8966
25.7634
20.095
20.1354
20.2473
20.416
20.618
20.8438
21.0795
21.3391
21.6212
21.8324
22.0719
22.4604
22.6532
22.9743
23.3572
23.6252
23.8741
24.3253
24.8969
25.7638
20.0951
20.1355
20.2474
20.4161
20.6181
20.8439
21.0796
21.3392
21.6213
21.8326
22.0721
22.4605
22.6534
22.9745
23.3575
23.6255
23.8743
24.3255
24.8972
25.7641
20.0952
20.1356
20.2475
20.4162
20.6183
20.844
21.0797
21.3394
21.6215
21.8328
22.0723
22.4607
22.6536
22.9747
23.3576
23.6257
23.8746
24.3258
24.8975
25.7645
20.0953
20.1357
20.2476
20.4163
20.6184
20.8441
21.0799
21.3395
21.6216
21.8329
22.0724
22.4609
22.6538
22.9749
23.3579
23.6259
23.8748
24.326
24.8978
25.7649
20.0954
20.1358
20.2477
20.4165
20.6185
20.8443
21.08
21.3396
21.6218
21.8331
22.0726
22.4611
22.654
22.9751
23.3581
23.6262
23.875
24.3263
24.8981
25.7653
20.0955
20.1359
20.2478
20.4166
20.6186
20.8444
21.0801
21.3398
21.6219
21.8332
22.0728
22.4613
22.6541
22.9753
23.3583
23.6264
23.8752
24.3265
24.8984
25.7657
20.0955
20.136
20.2479
20.4167
20.6187
20.8445
21.0803
21.3399
21.6221
21.8334
22.0729
22.4615
22.6543
22.9754
23.3585
23.6266
23.8755
24.3268
24.8987
25.766
20.0957
20.1361
20.248
20.4168
20.6189
20.8447
21.0804
21.3401
21.6222
21.8335
22.0731
22.4616
22.6545
22.9756
23.3587
23.6268
23.8757
24.3271
24.899
25.7664
20.0958
20.1362
20.2481
20.4169
20.619
20.8448
21.0806
21.3402
21.6224
21.8337
22.0733
22.4618
22.6547
22.9758
23.3589
23.627
23.8759
24.3273
24.8993
25.7668
20.0959
20.1363
20.2482
20.417
20.6191
20.8449
21.0807
21.3404
21.6225
21.8338
22.0734
22.462
22.6549
22.976
23.3591
23.6272
23.8762
24.3276
24.8996
25.7672
20.096
20.1364
20.2483
20.4171
20.6192
20.8451
21.0808
21.3405
21.6227
21.834
22.0736
22.4622
22.6551
22.9762
23.3593
23.6275
23.8764
24.3278
24.8999
25.7676
20.0961
20.1365
20.2485
20.4173
20.6193
20.8452
21.081
21.3407
21.6228
21.8342
22.0737
22.4623
22.6552
22.9764
23.3596
23.6277
23.8766
24.3281
24.9002
25.7679
20.0962
20.1366
20.2486
20.4174
20.6195
20.8453
21.0811
21.3408
21.623
21.8343
22.0739
22.4625
22.6554
22.9766
23.3598
23.6279
23.8769
24.3284
24.9005
25.7683
20.0963
20.1367
20.2487
20.4175
20.6196
20.8454
21.0812
21.3409
21.6231
21.8345
22.0741
22.4627
22.6556
22.9768
23.36
23.6281
23.8771
24.3286
24.9008
25.7687
20.0964
20.1369
20.2488
20.4176
20.6197
20.8456
21.0814
21.3411
21.6232
21.8346
22.0742
22.4629
22.6558
22.977
23.3602
23.6284
23.8773
24.3289
24.9011
25.7691
20.0965
20.137
20.2489
20.4177
20.6198
20.8457
21.0815
21.3412
21.6234
21.8348
22.0744
22.4631
22.656
22.9772
23.3604
23.6286
23.8776
24.3291
24.9013
25.7695
20.0966
20.137
20.249
20.4178
20.6199
20.8458
21.0816
21.3414
21.6236
21.8349
22.0745
22.4632
22.6561
22.9774
23.3606
23.6288
23.8778
24.3294
24.9016
25.7699
22.0712
21.6806
21.5964
21.5542
21.5043
21.4546
21.4039
21.3449
21.2758
21.2009
21.1192
21.0297
20.927
20.8221
20.7092
20.589
20.4628
20.3323
20.2118
20.1318
22.0715
21.6807
21.5965
21.5543
21.5045
21.4547
21.404
21.345
21.2759
21.201
21.1193
21.0298
20.9271
20.8222
20.7093
20.5891
20.4629
20.3324
20.2119
20.1319
22.0717
21.6809
21.5966
21.5544
21.5046
21.4548
21.4041
21.3451
21.276
21.2011
21.1194
21.0299
20.9273
20.8223
20.7094
20.5892
20.463
20.3325
20.212
20.132
22.072
21.681
21.5967
21.5546
21.5047
21.4549
21.4042
21.3452
21.2761
21.2012
21.1195
21.03
20.9273
20.8224
20.7095
20.5893
20.463
20.3326
20.2121
20.1321
22.0722
21.6811
21.5969
21.5547
21.5048
21.4551
21.4044
21.3454
21.2762
21.2013
21.1196
21.0301
20.9274
20.8225
20.7096
20.5894
20.4632
20.3327
20.2122
20.1322
22.0725
21.6812
21.597
21.5548
21.5049
21.4552
21.4045
21.3455
21.2763
21.2015
21.1197
21.0302
20.9276
20.8226
20.7097
20.5895
20.4633
20.3328
20.2123
20.1323
22.0728
21.6814
21.5971
21.5549
21.505
21.4553
21.4046
21.3456
21.2765
21.2016
21.1199
21.0303
20.9277
20.8227
20.7098
20.5896
20.4634
20.3329
20.2124
20.1324
22.0731
21.6815
21.5972
21.5551
21.5052
21.4554
21.4047
21.3457
21.2766
21.2017
21.12
21.0304
20.9278
20.8228
20.7099
20.5897
20.4635
20.333
20.2125
20.1325
22.0733
21.6816
21.5974
21.5552
21.5053
21.4555
21.4048
21.3458
21.2767
21.2018
21.1201
21.0305
20.9279
20.8229
20.71
20.5898
20.4636
20.3331
20.2126
20.1326
22.0736
21.6818
21.5975
21.5553
21.5054
21.4556
21.4049
21.3459
21.2768
21.2019
21.1202
21.0306
20.928
20.823
20.7101
20.5899
20.4637
20.3332
20.2127
20.1327
22.0739
21.6819
21.5976
21.5554
21.5055
21.4558
21.4051
21.3461
21.2769
21.202
21.1203
21.0307
20.9281
20.8231
20.7102
20.59
20.4638
20.3333
20.2128
20.1328
22.0742
21.682
21.5977
21.5555
21.5056
21.4559
21.4052
21.3462
21.277
21.2021
21.1204
21.0309
20.9282
20.8232
20.7103
20.5901
20.4639
20.3334
20.2129
20.1329
22.0744
21.6822
21.5979
21.5557
21.5058
21.456
21.4053
21.3463
21.2771
21.2023
21.1205
21.031
20.9283
20.8233
20.7104
20.5902
20.464
20.3335
20.213
20.133
22.0747
21.6823
21.598
21.5558
21.5059
21.4561
21.4054
21.3464
21.2773
21.2024
21.1206
21.0311
20.9284
20.8234
20.7105
20.5903
20.4641
20.3336
20.2131
20.1331
22.075
21.6824
21.5981
21.5559
21.506
21.4562
21.4055
21.3465
21.2774
21.2025
21.1207
21.0312
20.9285
20.8235
20.7106
20.5904
20.4642
20.3337
20.2132
20.1332
22.0752
21.6826
21.5982
21.556
21.5061
21.4564
21.4057
21.3466
21.2775
21.2026
21.1209
21.0313
20.9286
20.8236
20.7107
20.5905
20.4643
20.3338
20.2133
20.1333
22.0755
21.6827
21.5983
21.5561
21.5062
21.4565
21.4058
21.3467
21.2776
21.2027
21.121
21.0314
20.9287
20.8237
20.7108
20.5906
20.4644
20.3338
20.2134
20.1334
22.0757
21.6828
21.5985
21.5563
21.5063
21.4566
21.4059
21.3469
21.2777
21.2028
21.1211
21.0315
20.9288
20.8238
20.7109
20.5907
20.4644
20.3339
20.2134
20.1335
22.076
21.6829
21.5986
21.5564
21.5065
21.4567
21.406
21.347
21.2778
21.2029
21.1212
21.0316
20.9289
20.8239
20.7111
20.5908
20.4645
20.334
20.2135
20.1336
22.0763
21.6831
21.5987
21.5565
21.5066
21.4568
21.4061
21.3471
21.2779
21.2031
21.1213
21.0317
20.929
20.8241
20.7111
20.5909
20.4647
20.3342
20.2137
20.1337
40.0787
58.5972
72.4946
80.7899
87.1312
89.8026
86.7437
80.3679
71.7141
57.4025
40.0853
58.5999
72.4973
80.7923
87.1318
89.8031
86.7442
80.3704
71.7167
57.405
40.0919
58.6026
72.5
80.7947
87.1323
89.8036
86.7446
80.3729
71.7193
57.4075
40.0985
58.6053
72.5028
80.7971
87.1328
89.8041
86.7451
80.3754
71.722
57.4101
40.1052
58.608
72.5055
80.7995
87.1333
89.8046
86.7455
80.3779
71.7246
57.4126
40.1118
58.6107
72.5083
80.8019
87.1338
89.8051
86.7459
80.3804
71.7272
57.4151
40.1185
58.6134
72.511
80.8044
87.1343
89.8056
86.7464
80.3829
71.7298
57.4177
40.1252
58.6161
72.5137
80.8068
87.1348
89.8061
86.7468
80.3854
71.7325
57.4202
40.1319
58.6189
72.5165
80.8092
87.1353
89.8066
86.7473
80.3879
71.7351
57.4227
40.1386
58.6216
72.5192
80.8116
87.1359
89.8071
86.7477
80.3904
71.7377
57.4253
40.1453
58.6242
72.522
80.814
87.1364
89.8076
86.7482
80.3929
71.7403
57.4278
40.1521
58.627
72.5247
80.8164
87.1368
89.8081
86.7486
80.3954
71.7429
57.4303
40.1588
58.6297
72.5275
80.8188
87.1374
89.8086
86.7491
80.3979
71.7456
57.4329
40.1656
58.6324
72.5302
80.8212
87.1379
89.8091
86.7495
80.4004
71.7482
57.4354
40.1724
58.6351
72.5329
80.8237
87.1384
89.8096
86.75
80.403
71.7508
57.4379
40.1792
58.6378
72.5357
80.8261
87.1389
89.8101
86.7504
80.4055
71.7534
57.4404
40.186
58.6405
72.5384
80.8285
87.1394
89.8106
86.7508
80.408
71.756
57.443
40.1928
58.6432
72.5412
80.8309
87.1399
89.811
86.7513
80.4105
71.7587
57.4455
40.1997
58.6459
72.5439
80.8333
87.1404
89.8116
86.7517
80.413
71.7613
57.448
40.2065
58.6486
72.5466
80.8357
87.1409
89.812
86.7522
80.4155
71.7639
57.4506
20.3331
20.3639
20.3972
20.4041
20.394
20.3748
20.3494
20.3258
20.2956
20.2649
20.2345
20.2038
20.1718
20.15
20.1347
20.101
20.0691
20.0748
20.1713
21.5336
20.3332
20.3639
20.3972
20.4042
20.394
20.3748
20.3494
20.3258
20.2956
20.2649
20.2346
20.2038
20.1719
20.1501
20.1347
20.101
20.0691
20.0748
20.1713
21.5338
20.3332
20.364
20.3972
20.4042
20.394
20.3749
20.3495
20.3258
20.2957
20.2649
20.2346
20.2038
20.1719
20.1501
20.1347
20.101
20.0691
20.0748
20.1713
21.534
20.3333
20.364
20.3973
20.4042
20.3941
20.3749
20.3495
20.3259
20.2957
20.2649
20.2346
20.2038
20.1719
20.1501
20.1347
20.101
20.0691
20.0749
20.1713
21.5341
20.3333
20.3641
20.3973
20.4043
20.3941
20.3749
20.3495
20.3259
20.2957
20.265
20.2346
20.2038
20.1719
20.1501
20.1347
20.101
20.0691
20.0748
20.1714
21.5343
20.3333
20.3641
20.3973
20.4043
20.3941
20.3749
20.3495
20.3259
20.2958
20.265
20.2346
20.2039
20.1719
20.1501
20.1347
20.1011
20.0691
20.0749
20.1713
21.5345
20.3333
20.3641
20.3974
20.4043
20.3942
20.375
20.3495
20.326
20.2958
20.265
20.2347
20.2039
20.172
20.1501
20.1347
20.1011
20.0691
20.0749
20.1714
21.5346
20.3334
20.3641
20.3974
20.4044
20.3942
20.375
20.3496
20.326
20.2958
20.265
20.2347
20.2039
20.172
20.1501
20.1348
20.1011
20.0691
20.0749
20.1714
21.5348
20.3334
20.3642
20.3974
20.4044
20.3942
20.3751
20.3496
20.326
20.2958
20.2651
20.2347
20.2039
20.172
20.1502
20.1348
20.1011
20.0692
20.0749
20.1714
21.535
20.3335
20.3642
20.3975
20.4045
20.3943
20.3751
20.3497
20.326
20.2958
20.2651
20.2347
20.2039
20.172
20.1502
20.1348
20.1011
20.0692
20.0749
20.1714
21.5351
20.3335
20.3643
20.3975
20.4045
20.3943
20.3751
20.3497
20.3261
20.2959
20.2651
20.2348
20.2039
20.172
20.1502
20.1348
20.1011
20.0692
20.0749
20.1715
21.5353
20.3335
20.3643
20.3976
20.4045
20.3943
20.3752
20.3497
20.3261
20.2959
20.2651
20.2348
20.204
20.172
20.1502
20.1348
20.1011
20.0692
20.075
20.1715
21.5355
20.3335
20.3643
20.3976
20.4046
20.3944
20.3752
20.3497
20.3261
20.2959
20.2651
20.2348
20.204
20.1721
20.1502
20.1349
20.1011
20.0692
20.0749
20.1715
21.5356
20.3336
20.3644
20.3976
20.4046
20.3944
20.3752
20.3497
20.3261
20.2959
20.2652
20.2348
20.204
20.1721
20.1502
20.1349
20.1012
20.0692
20.075
20.1715
21.5358
20.3336
20.3644
20.3977
20.4046
20.3944
20.3752
20.3498
20.3261
20.2959
20.2652
20.2348
20.204
20.1721
20.1503
20.1349
20.1012
20.0692
20.075
20.1715
21.536
20.3337
20.3644
20.3977
20.4047
20.3945
20.3752
20.3498
20.3262
20.296
20.2652
20.2349
20.2041
20.1721
20.1503
20.1349
20.1012
20.0692
20.075
20.1716
21.5361
20.3337
20.3645
20.3977
20.4047
20.3945
20.3753
20.3498
20.3262
20.296
20.2652
20.2349
20.2041
20.1721
20.1503
20.1349
20.1012
20.0693
20.075
20.1716
21.5363
20.3337
20.3645
20.3978
20.4048
20.3945
20.3753
20.3499
20.3263
20.296
20.2653
20.2349
20.2041
20.1721
20.1503
20.1349
20.1012
20.0693
20.075
20.1716
21.5365
20.3338
20.3646
20.3978
20.4048
20.3946
20.3754
20.3499
20.3263
20.2961
20.2653
20.2349
20.2041
20.1722
20.1503
20.135
20.1012
20.0693
20.075
20.1716
21.5366
20.3338
20.3646
20.3978
20.4048
20.3946
20.3754
20.3499
20.3263
20.2961
20.2653
20.235
20.2041
20.1722
20.1503
20.135
20.1012
20.0693
20.075
20.1717
21.5368
25.5139
24.3326
23.6482
23.1767
22.9351
22.6948
22.3405
22.056
21.9135
21.6275
21.4557
21.322
21.1492
20.9902
20.8563
20.7261
20.6073
20.5038
20.4124
20.348
25.5142
24.3328
23.6484
23.1769
22.9352
22.6949
22.3406
22.0561
21.9136
21.6276
21.4557
21.3221
21.1493
20.9903
20.8563
20.7262
20.6073
20.5039
20.4124
20.3481
25.5145
24.333
23.6485
23.177
22.9354
22.695
22.3407
22.0562
21.9136
21.6277
21.4558
21.3221
21.1493
20.9903
20.8563
20.7262
20.6073
20.5039
20.4124
20.3481
25.5147
24.3332
23.6487
23.1771
22.9355
22.6951
22.3408
22.0563
21.9137
21.6277
21.4559
21.3222
21.1494
20.9904
20.8564
20.7262
20.6074
20.5039
20.4125
20.3482
25.5151
24.3334
23.6488
23.1773
22.9356
22.6952
22.3409
22.0564
21.9138
21.6278
21.4559
21.3223
21.1494
20.9904
20.8564
20.7263
20.6074
20.504
20.4125
20.3482
25.5154
24.3336
23.649
23.1774
22.9357
22.6953
22.341
22.0564
21.9139
21.6279
21.456
21.3223
21.1495
20.9905
20.8565
20.7263
20.6075
20.504
20.4126
20.3482
25.5156
24.3338
23.6491
23.1775
22.9358
22.6954
22.3411
22.0565
21.914
21.6279
21.456
21.3224
21.1495
20.9905
20.8565
20.7264
20.6075
20.5041
20.4126
20.3483
25.5159
24.334
23.6493
23.1777
22.936
22.6955
22.3412
22.0566
21.9141
21.628
21.4561
21.3224
21.1496
20.9906
20.8566
20.7264
20.6076
20.5041
20.4126
20.3483
25.5162
24.3342
23.6494
23.1778
22.9361
22.6956
22.3413
22.0567
21.9142
21.6281
21.4562
21.3225
21.1497
20.9906
20.8566
20.7265
20.6076
20.5042
20.4127
20.3483
25.5165
24.3344
23.6496
23.1779
22.9362
22.6958
22.3414
22.0568
21.9143
21.6282
21.4563
21.3226
21.1497
20.9907
20.8567
20.7265
20.6077
20.5042
20.4127
20.3484
25.5168
24.3346
23.6497
23.178
22.9363
22.6959
22.3415
22.0569
21.9143
21.6282
21.4563
21.3226
21.1498
20.9908
20.8567
20.7266
20.6077
20.5043
20.4128
20.3484
25.5171
24.3347
23.6499
23.1782
22.9364
22.696
22.3416
22.057
21.9144
21.6283
21.4564
21.3227
21.1498
20.9908
20.8568
20.7266
20.6077
20.5043
20.4128
20.3485
25.5174
24.335
23.6501
23.1783
22.9366
22.6961
22.3417
22.0571
21.9145
21.6284
21.4564
21.3228
21.1499
20.9908
20.8568
20.7266
20.6078
20.5043
20.4129
20.3485
25.5176
24.3351
23.6502
23.1784
22.9367
22.6962
22.3418
22.0571
21.9146
21.6284
21.4565
21.3228
21.1499
20.9909
20.8569
20.7267
20.6078
20.5044
20.4129
20.3485
25.5179
24.3353
23.6504
23.1786
22.9368
22.6963
22.3419
22.0572
21.9146
21.6285
21.4566
21.3229
21.15
20.991
20.857
20.7268
20.6079
20.5044
20.4129
20.3486
25.5182
24.3355
23.6505
23.1787
22.9369
22.6965
22.342
22.0573
21.9147
21.6286
21.4566
21.3229
21.1501
20.991
20.857
20.7268
20.6079
20.5044
20.413
20.3486
25.5185
24.3357
23.6507
23.1788
22.937
22.6966
22.3421
22.0574
21.9148
21.6286
21.4567
21.323
21.1501
20.9911
20.857
20.7269
20.608
20.5045
20.413
20.3486
25.5188
24.3359
23.6508
23.179
22.9372
22.6967
22.3422
22.0575
21.9149
21.6287
21.4568
21.3231
21.1502
20.9911
20.8571
20.7269
20.608
20.5045
20.413
20.3487
25.5191
24.3361
23.651
23.1791
22.9373
22.6968
22.3423
22.0576
21.915
21.6288
21.4569
21.3231
21.1502
20.9912
20.8571
20.7269
20.6081
20.5046
20.4131
20.3487
25.5194
24.3363
23.6512
23.1792
22.9374
22.6969
22.3424
22.0576
21.915
21.6288
21.4569
21.3232
21.1503
20.9912
20.8572
20.727
20.6081
20.5046
20.4131
20.3488
24.7262
23.0767
21.5069
20.3084
19.6692
19.6854
20.3398
21.5019
22.9497
24.3622
24.7275
23.0783
21.5088
20.3104
19.6712
19.6874
20.3417
21.5036
22.951
24.3632
24.7288
23.0799
21.5106
20.3124
19.6733
19.6895
20.3436
21.5053
22.9524
24.3642
24.7301
23.0816
21.5125
20.3144
19.6754
19.6915
20.3455
21.507
22.9538
24.3652
24.7314
23.0832
21.5144
20.3164
19.6774
19.6935
20.3474
21.5087
22.9552
24.3662
24.7327
23.0848
21.5162
20.3184
19.6795
19.6956
20.3494
21.5104
22.9566
24.3673
24.734
23.0864
21.5181
20.3205
19.6816
19.6976
20.3513
21.5121
22.958
24.3683
24.7353
23.088
21.5199
20.3225
19.6837
19.6997
20.3532
21.5137
22.9594
24.3693
24.7366
23.0897
21.5218
20.3245
19.6857
19.7017
20.3551
21.5154
22.9607
24.3703
24.7379
23.0913
21.5237
20.3265
19.6878
19.7037
20.357
21.5171
22.9621
24.3713
24.7392
23.0929
21.5255
20.3285
19.6899
19.7058
20.3589
21.5188
22.9635
24.3723
24.7404
23.0945
21.5274
20.3305
19.6919
19.7078
20.3608
21.5205
22.9649
24.3733
24.7417
23.0961
21.5292
20.3326
19.694
19.7098
20.3627
21.5222
22.9663
24.3743
24.743
23.0978
21.5311
20.3346
19.6961
19.7119
20.3646
21.5239
22.9677
24.3754
24.7443
23.0994
21.533
20.3366
19.6982
19.7139
20.3665
21.5256
22.9691
24.3764
24.7456
23.101
21.5348
20.3386
19.7002
19.7159
20.3685
21.5273
22.9705
24.3774
24.747
23.1026
21.5367
20.3406
19.7023
19.718
20.3704
21.529
22.9719
24.3784
24.7483
23.1043
21.5386
20.3427
19.7044
19.72
20.3723
21.5307
22.9732
24.3794
24.7496
23.1059
21.5404
20.3447
19.7065
19.7221
20.3742
21.5324
22.9746
24.3805
24.7509
23.1075
21.5423
20.3467
19.7085
19.7241
20.3761
21.534
22.976
24.3815
20.097
20.1371
20.2488
20.4173
20.6192
20.8448
21.0804
21.3398
21.6217
21.8329
22.0722
22.4601
22.6528
22.9734
23.3557
23.6233
23.8716
24.3214
24.8907
25.7505
20.0973
20.1374
20.2491
20.4177
20.6196
20.8452
21.0808
21.3403
21.6221
21.8333
22.0726
22.4607
22.6534
22.974
23.3564
23.6239
23.8723
24.3222
24.8916
25.7517
20.0976
20.1377
20.2494
20.418
20.6199
20.8456
21.0812
21.3407
21.6226
21.8338
22.0731
22.4612
22.6539
22.9746
23.357
23.6246
23.873
24.323
24.8925
25.7528
20.0979
20.1381
20.2497
20.4184
20.6203
20.846
21.0816
21.3411
21.623
21.8343
22.0736
22.4618
22.6545
22.9752
23.3577
23.6253
23.8737
24.3238
24.8934
25.754
20.0982
20.1384
20.25
20.4187
20.6206
20.8464
21.082
21.3416
21.6235
21.8347
22.0741
22.4623
22.6551
22.9758
23.3583
23.626
23.8744
24.3246
24.8943
25.7551
20.0985
20.1387
20.2504
20.419
20.621
20.8467
21.0824
21.342
21.624
21.8352
22.0746
22.4628
22.6556
22.9764
23.359
23.6267
23.8751
24.3254
24.8952
25.7563
20.0988
20.139
20.2507
20.4194
20.6214
20.8471
21.0828
21.3424
21.6244
21.8357
22.0751
22.4634
22.6562
22.977
23.3596
23.6273
23.8759
24.3261
24.8961
25.7574
20.0991
20.1393
20.251
20.4198
20.6218
20.8475
21.0832
21.3428
21.6249
21.8362
22.0756
22.464
22.6567
22.9776
23.3602
23.628
23.8766
24.3269
24.897
25.7586
20.0994
20.1396
20.2514
20.4201
20.6221
20.8479
21.0836
21.3433
21.6254
21.8366
22.0761
22.4645
22.6573
22.9782
23.3609
23.6287
23.8773
24.3277
24.8979
25.7597
20.0997
20.1399
20.2517
20.4204
20.6225
20.8483
21.084
21.3437
21.6258
21.8371
22.0766
22.465
22.6578
22.9788
23.3615
23.6294
23.878
24.3285
24.8988
25.7609
20.1
20.1402
20.252
20.4208
20.6228
20.8487
21.0844
21.3441
21.6262
21.8375
22.0771
22.4656
22.6584
22.9794
23.3622
23.6301
23.8787
24.3293
24.8997
25.7621
20.1003
20.1405
20.2523
20.4211
20.6232
20.8491
21.0848
21.3445
21.6267
21.838
22.0776
22.4661
22.6589
22.98
23.3628
23.6307
23.8794
24.3301
24.9006
25.7632
20.1006
20.1409
20.2527
20.4215
20.6236
20.8494
21.0853
21.345
21.6272
21.8385
22.0781
22.4666
22.6595
22.9806
23.3635
23.6314
23.8801
24.3308
24.9015
25.7644
20.1009
20.1412
20.253
20.4218
20.6239
20.8498
21.0857
21.3454
21.6276
21.839
22.0786
22.4672
22.66
22.9812
23.3641
23.6321
23.8808
24.3316
24.9024
25.7655
20.1012
20.1415
20.2533
20.4221
20.6243
20.8502
21.0861
21.3458
21.6281
21.8395
22.0791
22.4677
22.6606
22.9818
23.3648
23.6327
23.8815
24.3324
24.9033
25.7667
20.1015
20.1418
20.2536
20.4225
20.6247
20.8506
21.0865
21.3463
21.6285
21.8399
22.0796
22.4683
22.6612
22.9824
23.3654
23.6334
23.8822
24.3332
24.9042
25.7678
20.1018
20.1421
20.254
20.4228
20.625
20.851
21.0869
21.3467
21.629
21.8404
22.08
22.4688
22.6617
22.9829
23.3661
23.6341
23.8829
24.334
24.9051
25.769
20.1021
20.1424
20.2543
20.4232
20.6254
20.8514
21.0873
21.3471
21.6295
21.8409
22.0805
22.4693
22.6623
22.9835
23.3667
23.6348
23.8836
24.3348
24.906
25.7702
20.1024
20.1427
20.2546
20.4235
20.6258
20.8518
21.0877
21.3476
21.6299
21.8413
22.081
22.4699
22.6628
22.9842
23.3674
23.6355
23.8843
24.3355
24.9069
25.7713
20.1027
20.143
20.255
20.4239
20.6261
20.8521
21.0881
21.348
21.6304
21.8418
22.0815
22.4704
22.6634
22.9847
23.368
23.6361
23.885
24.3363
24.9078
25.7725
22.1007
21.6891
21.6039
21.5616
21.5115
21.4617
21.4109
21.3517
21.2824
21.2074
21.1254
21.0356
20.9328
20.8275
20.7144
20.594
20.4675
20.3367
20.2156
20.1347
22.1015
21.6895
21.6043
21.562
21.5119
21.462
21.4112
21.3521
21.2827
21.2077
21.1257
21.036
20.9331
20.8279
20.7147
20.5943
20.4677
20.3369
20.2159
20.135
22.1023
21.6899
21.6047
21.5623
21.5122
21.4624
21.4116
21.3524
21.2831
21.208
21.1261
21.0363
20.9334
20.8282
20.715
20.5946
20.4681
20.3373
20.2162
20.1353
22.1031
21.6903
21.6051
21.5627
21.5126
21.4627
21.4119
21.3528
21.2834
21.2084
21.1264
21.0367
20.9337
20.8285
20.7154
20.5949
20.4684
20.3376
20.2165
20.1356
22.1039
21.6907
21.6054
21.5631
21.513
21.4631
21.4123
21.3532
21.2838
21.2087
21.1268
21.037
20.9341
20.8288
20.7157
20.5952
20.4687
20.3378
20.2167
20.1359
22.1048
21.6911
21.6058
21.5635
21.5133
21.4634
21.4127
21.3535
21.2841
21.2091
21.1271
21.0373
20.9344
20.8291
20.716
20.5955
20.469
20.3381
20.217
20.1362
22.1056
21.6915
21.6062
21.5638
21.5137
21.4638
21.413
21.3539
21.2845
21.2094
21.1274
21.0376
20.9347
20.8294
20.7163
20.5958
20.4693
20.3384
20.2173
20.1365
22.1064
21.6919
21.6066
21.5642
21.5141
21.4641
21.4134
21.3542
21.2848
21.2097
21.1278
21.038
20.9351
20.8298
20.7166
20.5961
20.4696
20.3387
20.2176
20.1367
22.1072
21.6923
21.6069
21.5646
21.5144
21.4645
21.4137
21.3546
21.2852
21.2101
21.1281
21.0383
20.9354
20.8301
20.7169
20.5964
20.4699
20.339
20.2179
20.137
22.1081
21.6927
21.6073
21.5649
21.5148
21.4649
21.4141
21.3549
21.2855
21.2104
21.1284
21.0386
20.9357
20.8304
20.7172
20.5967
20.4702
20.3393
20.2182
20.1373
22.1089
21.6931
21.6077
21.5653
21.5151
21.4652
21.4144
21.3552
21.2859
21.2108
21.1288
21.0389
20.936
20.8307
20.7175
20.5971
20.4705
20.3396
20.2185
20.1376
22.1097
21.6935
21.608
21.5657
21.5155
21.4656
21.4148
21.3556
21.2862
21.2111
21.1291
21.0393
20.9363
20.831
20.7179
20.5974
20.4708
20.3399
20.2188
20.1379
22.1105
21.6939
21.6084
21.566
21.5159
21.4659
21.4151
21.356
21.2866
21.2115
21.1294
21.0396
20.9367
20.8314
20.7182
20.5977
20.4711
20.3402
20.219
20.1382
22.1113
21.6943
21.6088
21.5664
21.5162
21.4663
21.4155
21.3563
21.2869
21.2118
21.1298
21.04
20.937
20.8317
20.7185
20.598
20.4714
20.3405
20.2193
20.1385
22.1121
21.6947
21.6092
21.5668
21.5166
21.4667
21.4159
21.3567
21.2873
21.2121
21.1301
21.0403
20.9373
20.832
20.7188
20.5983
20.4717
20.3408
20.2196
20.1388
22.113
21.6951
21.6095
21.5671
21.5169
21.467
21.4162
21.357
21.2876
21.2125
21.1304
21.0406
20.9376
20.8323
20.7191
20.5986
20.472
20.3411
20.2199
20.1391
22.1138
21.6955
21.6099
21.5675
21.5173
21.4674
21.4166
21.3574
21.2879
21.2128
21.1308
21.0409
20.9379
20.8326
20.7194
20.5989
20.4723
20.3414
20.2202
20.1394
22.1146
21.6959
21.6103
21.5679
21.5177
21.4677
21.4169
21.3577
21.2883
21.2131
21.1311
21.0413
20.9383
20.8329
20.7197
20.5992
20.4726
20.3417
20.2205
20.1396
22.1154
21.6963
21.6106
21.5682
21.518
21.4681
21.4173
21.3581
21.2886
21.2135
21.1315
21.0416
20.9386
20.8332
20.72
20.5995
20.4729
20.342
20.2208
20.1399
22.1162
21.6967
21.611
21.5686
21.5184
21.4684
21.4176
21.3584
21.289
21.2139
21.1318
21.0419
20.9389
20.8336
20.7203
20.5998
20.4732
20.3423
20.2211
20.1402
40.337
58.8686
72.9544
81.3827
87.7379
90.4623
87.3283
80.9479
72.1409
57.6416
40.3586
58.8769
72.9628
81.3902
87.7394
90.4638
87.3296
80.9557
72.1489
57.6493
40.3803
58.8851
72.9712
81.3977
87.741
90.4653
87.331
80.9635
72.1569
57.657
40.4021
58.8934
72.9795
81.4052
87.7426
90.4669
87.3324
80.9713
72.1649
57.6647
40.4241
58.9016
72.9879
81.4128
87.7441
90.4684
87.3337
80.9792
72.1729
57.6725
40.4461
58.9099
72.9962
81.4203
87.7457
90.4699
87.3351
80.987
72.1809
57.6802
40.4683
58.9181
73.0046
81.4278
87.7472
90.4714
87.3365
80.9948
72.1889
57.6879
40.4906
58.9263
73.013
81.4354
87.7488
90.473
87.3378
81.0027
72.1969
57.6956
40.5131
58.9346
73.0213
81.4429
87.7504
90.4745
87.3392
81.0106
72.2049
57.7033
40.5357
58.9428
73.0297
81.4505
87.7519
90.476
87.3406
81.0184
72.2129
57.711
40.5584
58.9511
73.0381
81.4581
87.7535
90.4775
87.3419
81.0263
72.2209
57.7187
40.5812
58.9593
73.0464
81.4656
87.7551
90.4791
87.3433
81.0342
72.2289
57.7264
40.6041
58.9676
73.0548
81.4732
87.7566
90.4806
87.3447
81.0421
72.2369
57.7342
40.6272
58.9758
73.0632
81.4808
87.7582
90.4821
87.346
81.05
72.2449
57.7419
40.6504
58.984
73.0715
81.4884
87.7598
90.4837
87.3474
81.0579
72.2529
57.7495
40.6738
58.9923
73.0799
81.496
87.7613
90.4852
87.3488
81.0658
72.2608
57.7573
40.6972
59.0005
73.0882
81.5036
87.7629
90.4867
87.3501
81.0737
72.2688
57.765
40.7208
59.0088
73.0966
81.5112
87.7644
90.4882
87.3515
81.0816
72.2768
57.7727
40.7445
59.017
73.105
81.5188
87.766
90.4898
87.3529
81.0896
72.2848
57.7804
40.7683
59.0252
73.1133
81.5265
87.7676
90.4913
87.3542
81.0975
72.2928
57.7881
20.3339
20.3648
20.3981
20.405
20.3947
20.3755
20.35
20.3263
20.2961
20.2653
20.2349
20.2041
20.1722
20.1504
20.135
20.1012
20.0693
20.075
20.1716
21.5433
20.334
20.3649
20.3982
20.4051
20.3948
20.3756
20.3501
20.3264
20.2962
20.2654
20.235
20.2042
20.1722
20.1504
20.135
20.1013
20.0693
20.0751
20.1717
21.5438
20.3341
20.365
20.3983
20.4052
20.3949
20.3757
20.3502
20.3265
20.2963
20.2655
20.2351
20.2042
20.1723
20.1504
20.135
20.1013
20.0694
20.0751
20.1718
21.5443
20.3342
20.3651
20.3984
20.4053
20.395
20.3757
20.3502
20.3266
20.2963
20.2655
20.2351
20.2043
20.1723
20.1505
20.1351
20.1014
20.0694
20.0752
20.1718
21.5448
20.3343
20.3652
20.3985
20.4054
20.3951
20.3758
20.3503
20.3267
20.2964
20.2656
20.2352
20.2044
20.1724
20.1506
20.1352
20.1014
20.0695
20.0752
20.1719
21.5453
20.3344
20.3653
20.3986
20.4055
20.3952
20.3759
20.3504
20.3268
20.2965
20.2657
20.2353
20.2044
20.1724
20.1506
20.1352
20.1015
20.0695
20.0753
20.172
21.5458
20.3345
20.3654
20.3987
20.4056
20.3953
20.376
20.3505
20.3268
20.2965
20.2657
20.2353
20.2045
20.1725
20.1507
20.1353
20.1015
20.0695
20.0753
20.172
21.5463
20.3346
20.3656
20.3988
20.4057
20.3954
20.3761
20.3506
20.3269
20.2966
20.2658
20.2354
20.2045
20.1726
20.1507
20.1353
20.1015
20.0696
20.0753
20.1721
21.5468
20.3348
20.3657
20.399
20.4058
20.3955
20.3762
20.3507
20.327
20.2967
20.2659
20.2355
20.2046
20.1726
20.1507
20.1353
20.1016
20.0696
20.0754
20.1721
21.5473
20.3349
20.3658
20.3991
20.406
20.3956
20.3763
20.3508
20.3271
20.2968
20.266
20.2355
20.2046
20.1726
20.1508
20.1354
20.1016
20.0696
20.0754
20.1722
21.5478
20.335
20.3659
20.3992
20.4061
20.3957
20.3764
20.3508
20.3271
20.2969
20.266
20.2356
20.2047
20.1727
20.1508
20.1355
20.1017
20.0697
20.0755
20.1723
21.5483
20.3351
20.366
20.3993
20.4061
20.3958
20.3765
20.3509
20.3272
20.297
20.2661
20.2357
20.2048
20.1728
20.1509
20.1355
20.1017
20.0697
20.0755
20.1723
21.5488
20.3352
20.3661
20.3994
20.4062
20.3959
20.3766
20.351
20.3273
20.297
20.2662
20.2357
20.2048
20.1728
20.1509
20.1355
20.1017
20.0698
20.0755
20.1724
21.5494
20.3353
20.3662
20.3995
20.4064
20.396
20.3767
20.3511
20.3274
20.2971
20.2662
20.2358
20.2049
20.1729
20.151
20.1356
20.1018
20.0698
20.0756
20.1725
21.5499
20.3354
20.3663
20.3996
20.4065
20.3961
20.3768
20.3512
20.3275
20.2972
20.2663
20.2359
20.2049
20.1729
20.151
20.1356
20.1018
20.0698
20.0756
20.1725
21.5504
20.3355
20.3664
20.3997
20.4066
20.3962
20.3769
20.3513
20.3276
20.2973
20.2664
20.2359
20.205
20.173
20.1511
20.1357
20.1019
20.0698
20.0756
20.1726
21.5508
20.3356
20.3666
20.3999
20.4067
20.3963
20.377
20.3514
20.3277
20.2973
20.2664
20.236
20.2051
20.173
20.1512
20.1358
20.1019
20.0699
20.0757
20.1726
21.5513
20.3357
20.3667
20.4
20.4068
20.3964
20.3771
20.3515
20.3277
20.2974
20.2665
20.2361
20.2051
20.1731
20.1512
20.1358
20.102
20.0699
20.0757
20.1727
21.5518
20.3358
20.3668
20.4001
20.4069
20.3965
20.3772
20.3515
20.3278
20.2975
20.2666
20.2361
20.2052
20.1731
20.1512
20.1358
20.102
20.0699
20.0757
20.1728
21.5524
20.3359
20.3669
20.4002
20.407
20.3966
20.3772
20.3516
20.3279
20.2976
20.2666
20.2362
20.2052
20.1732
20.1513
20.1359
20.102
20.07
20.0758
20.1728
21.5529
25.5085
24.3318
23.6485
23.1774
22.9359
22.6957
22.3415
22.057
21.9145
21.6285
21.4566
21.3229
21.1501
20.9911
20.8571
20.7269
20.608
20.5046
20.4131
20.3488
25.5094
24.3324
23.649
23.1779
22.9363
22.696
22.3418
22.0573
21.9148
21.6287
21.4568
21.3231
21.1502
20.9912
20.8572
20.727
20.6082
20.5047
20.4132
20.3489
25.5103
24.333
23.6495
23.1783
22.9367
22.6964
22.3421
22.0575
21.915
21.6289
21.457
21.3233
21.1504
20.9914
20.8574
20.7272
20.6083
20.5048
20.4133
20.349
25.5111
24.3336
23.6499
23.1787
22.9371
22.6967
22.3424
22.0578
21.9152
21.6291
21.4572
21.3235
21.1506
20.9915
20.8575
20.7273
20.6084
20.5049
20.4135